<?xml version="1.0" encoding="UTF-8"?>

<!-- generated on Di 24 Jul 2018 10:12:39 CEST by SUMO gui Version dev-SVN-r25706
<?xml version="1.0" encoding="UTF-8"?>

<configuration xmlns:xsi="http://www.w3.org/2001/XMLSchema-instance" xsi:noNamespaceSchemaLocation="http://sumo.dlr.de/xsd/sumoConfiguration.xsd">

    <input>
        <net-file value="example.net.xml"/>
        <route-files value="example.rou.xml"/>
    </input>

    <output>
        <tripinfo-output value="tripinfo.xml"/>
    </output>

    <time>
        <begin value="0"/>
        <end value="1200"/>
    </time>

    <processing>
        <step-method.ballistic value="true"/>
        <time-to-teleport value="-1"/>
    </processing>

    <traci_server>
        <remote-port value="8873"/>
    </traci_server>

</configuration>
-->

<tripinfos xmlns:xsi="http://www.w3.org/2001/XMLSchema-instance" xsi:noNamespaceSchemaLocation="http://sumo.dlr.de/xsd/tripinfo_file.xsd">
</tripinfos>
